% Model:              Al_zonly.mph
% Version:            COMSOL 5.4.0.225
% Date:               Apr 10 2023, 16:35
% Dimension:          3
% Nodes:              3422
% Expressions:        1
% Description:        Surface
% X                       Y                        Z                        Color
0                         0.06647859897539625      0.13716301239054157      0.8010330594828226
0                         0.0443190659835975       0.1247753415936944       0.5708715573086315
0                         0.0443190659835975       0.1581086749270277       0.849389196389385
0                         0.02215953299179876      0.14572100413018052      0.592692780340157
0                         0.02215953299179875      0.11238767079684718      0.2798423341415638
0                         -7.52316384526264E-34    0.1333333333333333       0.2751286432980522
0                         0                        0.09999999999999999      -0.07205461001838054
0                         0.02215953299179875      0.17905433746351385      0.8869237905211922
0                         7.380607122730724E-18    0.16666666666666669      0.6036924605969272
0                         0                        0.2                      0.9136368418782445
0                         0.027064216510441313     0.09219085205404981      0.1614005770776566
0                         0                        0.06666666666666667      -0.3147886825537239
0                         0.027064216510441316     0.05885751872071647      -0.019487175998186633
0                         0.05412843302088262      0.0843817041080996       0.29741178071761964
0                         0.054128433020882626     0.051048370774766254     0.17837034710127667
0                         0.08119264953132393      0.07657255616214939      0.33597900090150884
0                         0                        0.03333333333333333      -0.2907704792142637
0                         0.02706421651044132      0.02552418538738314      0.06637734680077367
0                         0                        0                        0
0                         0.07138328249403883      0.11696619364774416      0.6351073806345262
0                         0.04922374950224008      0.104578522850897        0.4286878393525298
0                         0.07628796601268138      0.09676937490494676      0.4800893611074216
0                         0.1                      0                        0
0                         0.06666666666666667      0                        0
0                         0.09373088317710798      0.02552418538738313      0.13043704460106592
0                         0.06039754984377466      0.02552418538738313      0.09840719570091985
0                         0.033333333333333326     0                        0
0                         0.08746176635421594      0.051048370774766254     0.2424300449015689
0                         0.07765239931693084      0.1581086749270277       1.0642358746403144
0                         0.05549286632513209      0.1790543374635139       1.1129278480998934
0                         0.03333333333333334      0.2                      1.1507982787847169
0                         0.0888261996584654       0.17905433746351385      1.3185512791265823
0                         0.06666666666666668      0.20000000000000004      1.367579089139178
0                         0.1                      0.2                      1.5639792729416273
0                         0.10611444792543323      0.0704246346733597       0.3990183842263588
0                         0.11238356474832527      0.04490044928597658      0.2543311916631635
0                         0.1310362463195425       0.06427671318457001      0.37455442176298853
0                         0.13730536314243452      0.038752527797186895     0.17872899263653763
0                         0.15595804471365177      0.05812879169578034      0.26258711351139796
0                         0.11865268157121732      0.01937626389859346      0.09119995479940499
0                         0.17063869647576785      0.038752527797186895     0.18160272095998045
0                         0.15198601490455063      0.01937626389859345      0.0926368189611264
0                         0.18531934823788393      0.019376263898593447     0.09407368312284779
0                         0.16666666666666669      0                        6.977838113029725E-19
0                         0.2                      0                        0
0                         0.1333333333333334       6.453592293429493E-18    1.5732794640776346E-17
0                         0.0971584709318778       0.13329544100898047      0.9452436902015253
0                         0.10833227127341237      0.15424110354546663      1.1917229576006456
0                         0.11950607161494695      0.17518676608195274      1.4293148143285421
0                         0.12783834288835932      0.12942786962741937      1.025228883991168
0                         0.13901214322989391      0.15037353216390556      1.254984603631917
0                         0.15851821484484085      0.12556029824585824      1.040988640851751
0                         0.10696783796916293      0.09290180352338567      0.5893500763424679
0                         0.10206315445052037      0.11309862226618309      0.7618430536114008
0                         0.1327430264070019       0.10923105088462194      0.8243532896592154
0                         0.1568114347573815       0.08060596054580631      0.5162873999981236
0                         0.13188963636327225      0.086753882034596        0.5965704110644059
0                         0.15766482480111113      0.10308312939583227      0.7757545757782411
0                         0.17234547656322724      0.1503735321639055       1.3207137180694604
0                         0.1528394049482803       0.17518676608195277      1.5290702215200145
0                         0.13333333333333333      0.2                      1.6977609728870284
0                         0.1861727382816136       0.17518676608195272      1.5875889337439948
0                         0.16666666666666674      0.20000000000000004      1.7903059778649375
0                         0.2                      0.2                      1.8416142878753543
0                         0.17960610245556735      0.06135682078573435      0.3759750846545699
0                         0.19428675421768346      0.04198055688714091      0.2659062542492565
0                         0.20325416019748285      0.06458484987568835      0.4232023378184793
0                         0.21793481195959896      0.0452085859770949       0.2840490695592699
0                         0.2269022179393984       0.06781287896564235      0.40426887300312625
0                         0.20896740597979954      0.02260429298854746      0.14929277855822784
0                         0.18045949249929705      0.08383398963576033      0.6118693536500598
0                         0.1813128825430267       0.10631115848578628      0.8535305119389418
0                         0.20410755024121258      0.08706201872571434      0.6412905893227335
0                         0.21938496411681804      0.17815403024964496      1.6488099862851673
0                         0.2055577023984317       0.15334079633159775      1.3852073381950665
0                         0.23876992823363613      0.1563080604992899       1.4299438906190947
0                         0.2249426665152498       0.13149482658124267      1.1567639485702528
0                         0.2581548923504542       0.1344620907489349       1.1850160008771373
0                         0.19173044068004536      0.12852756241355048      1.108754828561791
0                         0.237319776076417        0.09002928289340655      0.6638865886324872
0                         0.21452510837823116      0.10927842265347851      0.8987116054488384
0                         0.24773733421343555      0.11224568682117071      0.9241356312571576
0                         0.28171917798667256      0.11139500216161739      0.916453905556958
0                         0.27130161984965395      0.08917859823385325      0.6740403835831865
0                         0.30528346362289094      0.08832791357429991      0.6343061800704175
0                         0.2948659054858723       0.06611150964653574      0.4103595057428536
0                         0.3288477492591093       0.06526082498698242      0.3385728244175153
0                         0.26088406171263545      0.06696219430608907      0.432258188604724
0                         0.25126814529293234      0.0452085859770949       0.26366817319886543
0                         0.24230073931313287      0.02260429298854746      0.13910233037802563
0                         0.27563407264646617      0.022604292988547447     0.12891188219782335
0                         0.2666666666666668       -3.76158192263132E-34    1.1855807796952443E-19
0                         0.3000000000000001       0                        0
0                         0.23333333333333345      7.528741959377509E-18    2.4375597233442257E-17
0                         0.30961591641970315      0.02175360832899414      0.026210774375296557
0                         0.28524998906616933      0.0443579013175416       0.22631227708840085
0                         0.3192318328394062       0.043507216657988276     0.13906838251446835
0                         0.27210326156696946      0.1563080604992899       1.4342789695665077
0                         0.25271829745015145      0.17815403024964502      1.6664446209946946
0                         0.2333333333333334       0.2                      1.872548478346996
0                         0.2860516307834847       0.17815403024964493      1.6707256095267162
0                         0.2666666666666668       0.20000000000000004      1.890129022641132
0                         0.3000000000000001       0.2                      1.8943559207577632
0                         0.32032696855508375      0.17735425526935297      1.6617186753041597
0                         0.3063785993385684       0.15550828551899792      1.4286147565668528
0                         0.3406539371101673       0.1547085105387059       1.411956855111606
0                         0.326705567893652        0.13286254078835086      1.1693793288680383
0                         0.36098090566525093      0.13206276580805887      1.1450704601801023
0                         0.29243023012205316      0.13366231576864293      1.1826945091003833
0                         0.33955880139448985      0.08752813859400792      0.6135556328636637
0                         0.31599451575827153      0.1105952271813254       0.9049178860652043
0                         0.35026985352987033      0.10979545220103339      0.8823881781178593
0                         0.35256516617273964      0.043507216657988276     0.059414640952043525
0                         0.34294924975303653      0.02175360832899415      -0.013616096405915828
0                         0.37628258308636986      0.021753608328994138     -0.05344296718712825
0                         0.36666666666666675      -7.52316384526264E-34    -1.745470369975724E-17
0                         0.40000000000000013      0                        0
0                         0.3333333333333335       7.24540705065806E-18     -9.482333799468743E-18
0                         0.4097133446091239       0.0218080896903766       0.11230427223578535
0                         0.3859959276954937       0.04356169801937075      0.14122061114019427
0                         0.3622785107818634       0.06531530634836488      0.3364375253709032
0                         0.4194266892182476       0.04361617938075319      0.2167700570390268
0                         0.3957092723046175       0.06536978770974734      0.32804570203497285
0                         0.42914003382737137      0.06542426907112979      0.31339735440972444
0                         0.3837006150526244       0.10984993356241586      0.8601275691431463
0                         0.3729895629172439       0.08758261995539038      0.6013576788530012
0                         0.40642032443999787      0.08763710131677281      0.5829032005530204
0                         0.37398727044350066      0.15470851053870593      1.3996019365796282
0                         0.3536603018884171       0.177354255269353        1.6567149257667038
0                         0.3333333333333334       0.2                      1.896703340214829
0                         0.3869936352217504       0.17735425526935297      1.6451438022396876
0                         0.3666666666666668       0.20000000000000004      1.8924833856823347
0                         0.40000000000000013      0.2                      1.8816960571602805
0                         0.452760022551581        0.04361617938075319      0.20587719681705874
0                         0.44304667794245733      0.021808089690376602     0.10685784212480133
0                         0.47638001127579044      0.021808089690376592     0.10141141201381723
0                         0.46666666666666673      -3.76158192263132E-34    7.201497122364012E-20
0                         0.5                      0                        0
0                         0.4333333333333335       7.26355298920398E-18     1.8448090695245538E-17
0                         0.5099328854059824       0.02213337075995333      0.0027863373187437157
0                         0.4863128966817728       0.04394146045032993      0.18314584644451554
0                         0.4626929079575632       0.06574955014070653      0.3665597283597116
0                         0.5198657708119646       0.04426674151990666      0.10423670060501994
0                         0.4962457820877552       0.06607483121028326      0.3635443068427463
0                         0.5297986562179469       0.06640011227985998      0.3043510898588287
0                         0.4211983718198213       0.17770211185596765      1.6446230162207334
0                         0.40819200704157166      0.15505636712532064      1.39440322348172
0                         0.4423967436396423       0.15540422371193527      1.3962014235196474
0                         0.42939037886139264      0.13275847898128826      1.132314092962213
0                         0.46359511545946347      0.13310633556790294      1.136431279057023
0                         0.39518564226332187      0.1324106223946736       1.1351938200032399
0                         0.44062506103806875      0.0879849579033875       0.5830024258162694
0                         0.4179053516506953       0.11019779014903054      0.8552388616863397
0                         0.45211008824876603      0.11054564673564521      0.8573470673653689
0                         0.4856629623789579       0.11087092780522197      0.866177669439613
0                         0.4741779351682607       0.08831023897296428      0.6139989138283852
0                         0.5077308092984524       0.08863552004254097      0.5888176063735482
0                         0.4757300769729757       0.15540422371193527      1.3917355657535833
0                         0.4545317051531547       0.17770211185596768      1.6426956468135958
0                         0.4333333333333334       0.2                      1.882307176112069
0                         0.4878650384864878       0.17770211185596765      1.6393296525157184
0                         0.4666666666666669       0.20000000000000004      1.8814796701731182
0                         0.5                      0.2                      1.879213539343428
0                         0.5531991041452979       0.04426674151990666      0.09223194786319341
0                         0.5432662187393158       0.022133370759953332     -0.0032160390521695265
0                         0.576599552072649        0.022133370759953325     -0.009218415423082804
0                         0.5666666666666667       -3.76158192263132E-34    -1.3322742217197086E-17
0                         0.6000000000000001       0                        0
0                         0.5333333333333334       7.371893349079615E-18    -8.751008590424511E-18
0                         0.6298449603330236       0.06648138021886683      0.34560339576065213
0                         0.6532299735553492       0.04432092014591122      0.2256888440299354
0                         0.6198966402220158       0.04432092014591122      0.21378165872761618
0                         0.6432816534443413       0.022160460072955617     0.10453411945855845
0                         0.6766149867776746       0.022160460072955607     0.11048771210971803
0                         0.6666666666666667       -3.76158192263132E-34    -1.0844427328550701E-18
0                         0.7000000000000001       0                        0
0                         0.609948320111008        0.022160460072955607     0.09858052680739882
0                         0.6333333333333335       7.380915902784537E-18    1.602448455631219E-17
0                         0.5865478721836569       0.04429383083290894      0.1682580636263359
0                         0.5631474242563058       0.06642720159286226      0.34860437915463205
0                         0.5964961922946649       0.06645429090586456      0.36235514778857314
0                         0.5213915496913984       0.1777484440459129       1.6435466440991304
0                         0.5092565881778864       0.15545055590188053      1.3936080002271554
0                         0.542783099382797        0.15549688809182577      1.3976559279535783
0                         0.530648137869285        0.13319899994779338      1.137662527037338
0                         0.5641746490741957       0.13324533213773865      1.1415413909067722
0                         0.49712162666437437      0.1331526677578482       1.1359591564207547
0                         0.5860647528271383       0.11099068149811474      0.8719553181737927
0                         0.5527159847887795       0.11096359218511243      0.8623434183851593
0                         0.5746060885417221       0.08870894154548851      0.6102125792447298
0                         0.6079548565800809       0.08873603085849079      0.6066426531250857
0                         0.5412573205033631       0.08868185223248619      0.5832799847025114
0                         0.5191894735838687       0.11091725999516719      0.8631727972859605
0                         0.6414011250970227       0.08871730829002199      0.6131065770155883
0                         0.6195110213440801       0.11097195892964591      0.8786297919790437
0                         0.5976209175911374       0.13322660956926982      1.148426414626772
0                         0.6529572898610216       0.11095323636117714      0.883324429848259
0                         0.6310671861080792       0.13320788700080105      1.1533316024107356
0                         0.6645134546250206       0.13318916443233228      1.1562569542586634
0                         0.5761164327161307       0.15549688809182577      1.3971844568778893
0                         0.554724883024732        0.17774844404591295      1.6447412228038742
0                         0.5333333333333332       0.2                      1.8820741678286044
0                         0.5880582163580653       0.17774844404591286      1.644138456257218
0                         0.5666666666666668       0.20000000000000004      1.883137451062381
0                         0.6000000000000001       0.2                      1.882403389044758
0                         0.621504484875007        0.1777297214774441       1.6501632671074986
0                         0.6095627012330722       0.15547816552335697      1.4036393741630298
0                         0.6430089697500138       0.15545944295488817      1.4081144555121337
0                         0.7102590018091606       0.022313449261695085     0.12823523767992
0                         0.686873988586835        0.0444739093346507       0.2685831808727641
0                         0.6634889753645095       0.06663436940760631      0.4136445438761076
0                         0.7205180036183206       0.04462689852339016      0.2579525434660288
0                         0.6971329903959953       0.06678735859634578      0.428160717741999
0                         0.730777005427481        0.06694034778508524      0.3891519173583264
0                         0.6866013048925075       0.11110622554991663      0.9061006137059842
0                         0.6750451401285084       0.08887029747876146      0.658515243002179
0                         0.7086891551599941       0.08902328666750094      0.6503989347392052
0                         0.7538513369516542       0.04462689852339016      0.25960814107809194
0                         0.7435923351424938       0.02231344926169509      0.1290630364859516
0                         0.7769256684758271       0.02231344926169508      0.12989083529198314
0                         0.7666666666666666       0                        -4.725424611773988E-20
0                         0.8                      0                        0
0                         0.7333333333333335       7.431871538741724E-18    2.1369906250044504E-17
0                         0.7412670791675722       0.0885768996618342       0.6582936917440139
0                         0.7191792289000853       0.11065983854424989      0.9186061399599663
0                         0.6970913786325984       0.13274277742666557      1.1733732497618192
0                         0.7517571529076629       0.11021345153858313      0.9206062107791156
0                         0.7296693026401764       0.13229639042099883      1.1799840898301421
0                         0.7622472266477539       0.13185000341533207      1.1760894744636319
0                         0.6763423030833472       0.15545944295488823      1.4114982988234481
0                         0.6548378182083404       0.17772972147744415      1.6535722560006978
0                         0.6333333333333334       0.2                      1.8858375235198417
0                         0.6881711515416735       0.17772972147744412      1.6534964485672932
0                         0.666666666666667        0.20000000000000007      1.8857868616683218
0                         0.7000000000000001       0.20000000000000004      1.882251403490198
0                         0.7207490755492515       0.1772833344717774       1.6681870160541514
0                         0.7089202270909251       0.1550130559492215       1.4274017303184554
0                         0.7414981510985026       0.1545666689435547       1.4327997063786297
0                         0.8095011843332225       0.022087676013025487     0.14092973232498063
0                         0.7864268528090496       0.044401125274720565     0.2868644530939774
0                         0.7633525212848765       0.06671457453641565      0.4326256443570999
0                         0.8190023686664449       0.044175352026050975     0.2715012757215325
0                         0.7959280371422721       0.06648880128774605      0.43347988196754283
0                         0.8285035529996674       0.06626302803907645      0.3917146301896555
0                         0.7843326687650582       0.10998767828991354      0.9159180906509238
0                         0.7738425950249676       0.0883511264131646       0.6776864951793045
0                         0.8064181108823627       0.08812535316449498      0.6544598092262648
0                         0.8523357019997784       0.044175352026050975     0.27101162071857965
0                         0.8428345176665559       0.022087676013025494     0.1406849048235042
0                         0.8761678509998893       0.022087676013025487     0.14044007732202773
0                         0.8666666666666667       0                        1.252966762817798E-18
0                         0.9000000000000002       0                        0
0                         0.8333333333333335       7.356673941036501E-18    2.4291235570969886E-17
0                         0.8549375858018659       0.12860337022827087      1.0561165723978094
0                         0.8461262415344664       0.10782325616520608      0.8464278448180275
0                         0.824040799417162        0.12968558129062463      1.1152984543898277
0                         0.8152294551497625       0.10890546722755982      0.8907684250528476
0                         0.8373148972670668       0.08704314210214126      0.6249605307486428
0                         0.7931440130324579       0.1307677923529783       1.1552894217451017
0                         0.774831484431836        0.15456666894355472      1.4240372222232418
0                         0.7540824088825849       0.1772833344717774       1.6685137284138467
0                         0.7333333333333334       0.20000000000000007      1.8916673123649759
0                         0.7874157422159179       0.1772833344717774       1.650291326400113
0                         0.7666666666666668       0.2000000000000001       1.882534106866325
0                         0.8                      0.20000000000000004      1.8548517869942456
0                         0.818312528600622        0.17620112340942365      1.606033118354442
0                         0.8057282708165401       0.15348445788120102      1.3915080918411418
0                         0.8366250572012439       0.15240224681884726      1.3397880468222967
0                         0.9212397186819972       0.07291883697778119      0.3061372426026965
0                         0.9141598124546648       0.04861255798518746      0.22665613499352805
0                         0.8903276634545538       0.07070023399821294      0.42195283589903565
0                         0.8832477572272217       0.046393955005619214     0.2924787765730636
0                         0.9070799062273325       0.024306278992593727     0.12461038745929587
0                         0.8594156082271106       0.06848163101864468      0.4504786317613554
0                         0.8770382967619099       0.11004185914477432      0.8115040216486527
0                         0.8682269524945103       0.08926174508170955      0.6368806199498053
0                         0.8991390077219534       0.09148034806127775      0.5615109117169481
0                         0.9333333333333336       0                        0
0                         0.940413239560666        0.024306278992593727     0.10146387358023742
0                         0.9474931457879981       0.04861255798518745      0.18036310723541113
0                         0.9666666666666668       0                        0
0                         0.9737465728939994       0.02430627899259373      0.07831735970117895
0                         1                        0                        0
0                         0.9345723677192844       0.1350993765582725       0.7862939371398655
0                         0.9301281513735219       0.11437253003144209      0.617537317035546
0                         0.9080274404134783       0.13293404111493864      0.920830810502187
0                         0.9035832240677161       0.11220719458810824      0.7368186668136026
0                         0.9256839350277595       0.09364568350461164      0.4574850855231563
0                         0.8814825131076721       0.13076870567160476      1.0107716889215015
0                         0.8699583905345774       0.15240224681884726      1.2577902218456
0                         0.8516458619339554       0.17620112340942368      1.538914566212029
0                         0.8333333333333333       0.2                      1.802612507686116
0                         0.8849791952672887       0.17620112340942365      1.4304440501117432
0                         0.8666666666666669       0.20000000000000004      1.7090212644201142
0                         0.9000000000000002       0.2                      1.5740780571962396
0                         0.9230482451461897       0.15673291770551498      1.0607572026479826
0                         0.8965033178403836       0.15456758226218117      1.1815717097182947
0                         0.9115241225730949       0.1783664588527575       1.3233519093334405
0                         1.0000000000000002       0.09999999999999999      -0.07117039871362484
0                         1                        0.06666666666666667      -0.31420824102171346
0                         0.9737465728939994       0.09097294565926041      0.1510321739455859
0                         0.9737465728939994       0.05763961232592706      -0.018705887449599355
0                         0.9999999999999998       0.03333333333333333      -0.2904847747838385
0                         0.9474931457879981       0.0819458913185208       0.2768013877176931
0                         0.956381578479523        0.12339958437218167      0.557921170504575
0                         0.9519373621337608       0.10267273784535125      0.4130090848151692
0                         0.9781907892397615       0.11169979218609083      0.2720997252200783
0                         0.956381578479523        0.15673291770551498      0.8379838315638938
0                         0.9781907892397618       0.1450331255194242       0.5854220123314825
0                         0.9781907892397615       0.1783664588527575       0.8807840410755996
0                         1                        0.16666666666666663      0.6040331692460675
0                         1                        0.2                      0.9146945656749833
0                         1.0000000000000002       0.13333333333333333      0.2754115144498648
0                         0.9448574559064284       0.17836645885275754      1.1128813072684103