% Model:              Al_zonly.mph
% Version:            COMSOL 5.4.0.225
% Date:               Apr 10 2023, 16:35
% Dimension:          3
% Nodes:              3422
% Expressions:        1
% Description:        Surface
% X                       Y                        Z                        Color
0                         0.06647859897539625      0.13716301239054157      -1.9677041331010152
0                         0.0443190659835975       0.1247753415936944       -2.0396113392923225
0                         0.0443190659835975       0.1581086749270277       -2.3231051264975258
0                         0.02215953299179876      0.14572100413018052      -2.4059013283233894
0                         0.02215953299179875      0.11238767079684718      -2.1001192521335854
0                         -7.52316384526264E-34    0.1333333333333333       -2.477298236799209
0                         0                        0.09999999999999999      -2.1492278716248046
0                         0.02215953299179875      0.17905433746351385      -2.6676063208130656
0                         7.380607122730724E-18    0.16666666666666669      -2.7612915182734863
0                         0                        0.2                      -3.001207716047636
0                         0.027064216510441313     0.09219085205404981      -1.8530870178200574
0                         0                        0.06666666666666667      -1.8565610836323965
0                         0.027064216510441316     0.05885751872071647      -1.4243763015969417
0                         0.05412843302088262      0.0843817041080996       -1.5393432329351957
0                         0.054128433020882626     0.051048370774766254     -0.9745885884813728
0                         0.08119264953132393      0.07657255616214939      -1.207996516970221
0                         0                        0.03333333333333333      -1.140151793090795
0                         0.02706421651044132      0.02552418538738314      -0.5719230828246327
0                         0                        0                        0
0                         0.07138328249403883      0.11696619364774416      -1.7475900030224523
0                         0.04922374950224008      0.104578522850897        -1.8060381570962771
0                         0.07628796601268138      0.09676937490494676      -1.4943541309788544
0                         0.1                      0                        0
0                         0.06666666666666667      0                        0
0                         0.09373088317710798      0.02552418538738313      -0.4093042325760562
0                         0.06039754984377466      0.02552418538738313      -0.4906136577003444
0                         0.033333333333333326     0                        0
0                         0.08746176635421594      0.051048370774766254     -0.8119697382327966
0                         0.07765239931693084      0.1581086749270277       -2.0515052805919525
0                         0.05549286632513209      0.1790543374635139       -2.3883565538214473
0                         0.03333333333333334      0.2                      -2.7143080279699716
0                         0.0888261996584654       0.17905433746351385      -2.1066409634587644
0                         0.06666666666666668      0.20000000000000004      -2.4249425165212446
0                         0.1                      0.2                      -2.133111181701452
0                         0.10611444792543323      0.0704246346733597       -0.9685948425941191
0                         0.11238356474832527      0.04490044928597658      -0.6236244608644754
0                         0.1310362463195425       0.06427671318457001      -0.7813139276995439
0                         0.13730536314243452      0.038752527797186895     -0.4873999429776805
0                         0.15595804471365177      0.05812879169578034      -0.6461537722864953
0                         0.11865268157121732      0.01937626389859346      -0.27201535221551554
0                         0.17063869647576785      0.038752527797186895     -0.3956959608900761
0                         0.15198601490455063      0.01937626389859345      -0.22616336117171326
0                         0.18531934823788393      0.019376263898593447     -0.18031137012791093
0                         0.16666666666666669      0                        5.62703209659371E-19
0                         0.2                      0                        0
0                         0.1333333333333334       6.453592293429493E-18    -4.2379223779984993E-17
0                         0.0971584709318778       0.13329544100898047      -1.7040393718810658
0                         0.10833227127341237      0.15424110354546663      -1.7865026904840144
0                         0.11950607161494695      0.17518676608195274      -1.8403005444628378
0                         0.12783834288835932      0.12942786962741937      -1.4654079015059316
0                         0.13901214322989391      0.15037353216390556      -1.5465333912208916
0                         0.15851821484484085      0.12556029824585824      -1.2518097219756126
0                         0.10696783796916293      0.09290180352338567      -1.2507089519158303
0                         0.10206315445052037      0.11309862226618309      -1.4939350328809657
0                         0.1327430264070019       0.10923105088462194      -1.2653133535842944
0                         0.1568114347573815       0.08060596054580631      -0.8691631823491727
0                         0.13188963636327225      0.086753882034596        -1.0338756873917383
0                         0.15766482480111113      0.10308312939583227      -1.0710484989122118
0                         0.17234547656322724      0.1503735321639055       -1.3382284101274937
0                         0.1528394049482803       0.17518676608195277      -1.5931083122524203
0                         0.13333333333333333      0.2                      -1.8470316983740145
0                         0.1861727382816136       0.17518676608195272      -1.3704284192100578
0                         0.16666666666666674      0.20000000000000004      -1.585464554214632
0                         0.2                      0.2                      -1.348409749223305
0                         0.17960610245556735      0.06135682078573435      -0.624951337688942
0                         0.19428675421768346      0.04198055688714091      -0.39697767970077574
0                         0.20325416019748285      0.06458484987568835      -0.5873712501380765
0                         0.21793481195959896      0.0452085859770949       -0.3818817455581634
0                         0.2269022179393984       0.06781287896564235      -0.5334135096338991
0                         0.20896740597979954      0.02260429298854746      -0.2040772423468637
0                         0.18045949249929705      0.08383398963576033      -0.8166798690603004
0                         0.1813128825430267       0.10631115848578628      -0.9872843069320207
0                         0.20410755024121258      0.08706201872571434      -0.7478189028181164
0                         0.21938496411681804      0.17815403024964496      -1.1751806249487102
0                         0.2055577023984317       0.15334079633159775      -1.1645048906064148
0                         0.23876992823363613      0.1563080604992899       -1.0030354290591963
0                         0.2249426665152498       0.13149482658124267      -0.9596652903878528
0                         0.2581548923504542       0.1344620907489349       -0.8319741615547639
0                         0.19173044068004536      0.12852756241355048      -1.0996104771948025
0                         0.237319776076417        0.09002928289340655      -0.6645175070526633
0                         0.21452510837823116      0.10927842265347851      -0.8695339866588891
0                         0.24773733421343555      0.11224568682117071      -0.7640377243596181
0                         0.28171917798667256      0.11139500216161739      -0.6335557758545435
0                         0.27130161984965395      0.08917859823385325      -0.5555196173635882
0                         0.30528346362289094      0.08832791357429991      -0.45578287223576575
0                         0.2948659054858723       0.06611150964653574      -0.367646992449001
0                         0.3288477492591093       0.06526082498698242      -0.29865545069843086
0                         0.26088406171263545      0.06696219430608907      -0.4458996787608238
0                         0.25126814529293234      0.0452085859770949       -0.32733508020951396
0                         0.24230073931313287      0.02260429298854746      -0.176803909672539
0                         0.27563407264646617      0.022604292988547447     -0.14953057699821426
0                         0.2666666666666668       -3.76158192263132E-34    1.2604547943137615E-18
0                         0.3000000000000001       0                        0
0                         0.23333333333333345      7.528741959377509E-18    -3.16314106974504E-17
0                         0.30961591641970315      0.02175360832899414      -0.11642617123075041
0                         0.28524998906616933      0.0443579013175416       -0.2670259618892444
0                         0.3192318328394062       0.043507216657988276     -0.2159779881302274
0                         0.27210326156696946      0.1563080604992899       -0.8479891514686964
0                         0.25271829745015145      0.17815403024964502      -0.9924109961673383
0                         0.2333333333333334       0.2                      -1.1379167692510612
0                         0.2860516307834847       0.17815403024964493      -0.8299989423301146
0                         0.2666666666666668       0.20000000000000004      -0.9477813642229657
0                         0.3000000000000001       0.2                      -0.7780035341390185
0                         0.32032696855508375      0.17735425526935297      -0.6656439946986535
0                         0.3063785993385684       0.15550828551899792      -0.6935171821834112
0                         0.3406539371101673       0.1547085105387059       -0.5510662086157314
0                         0.326705567893652        0.13286254078835086      -0.5548171753941505
0                         0.36098090566525093      0.13206276580805887      -0.434270175890252
0                         0.29243023012205316      0.13366231576864293      -0.6873851706156545
0                         0.33955880139448985      0.08752813859400792      -0.3678193752220714
0                         0.31599451575827153      0.1105952271813254       -0.5172795318781415
0                         0.35026985352987033      0.10979545220103339      -0.41302428361934507
0                         0.35256516617273964      0.043507216657988276     -0.17949269026136638
0                         0.34294924975303653      0.02175360832899415      -0.09818352229631994
0                         0.37628258308636986      0.021753608328994138     -0.0799408733618894
0                         0.36666666666666675      -7.52316384526264E-34    9.30402952344159E-19
0                         0.40000000000000013      0                        0
0                         0.3333333333333335       7.24540705065806E-18     -1.7755913316645493E-17
0                         0.4097133446091239       0.0218080896903766       -0.06647323540350492
0                         0.3859959276954937       0.04356169801937075      -0.15243239172491735
0                         0.3622785107818634       0.06531530634836488      -0.2580024915839173
0                         0.4194266892182476       0.04361617938075319      -0.10677604054237846
0                         0.3957092723046175       0.06536978770974734      -0.19875347982331393
0                         0.42914003382737137      0.06542426907112979      -0.12090841541662067
0                         0.3837006150526244       0.10984993356241586      -0.31145706292896624
0                         0.3729895629172439       0.08758261995539038      -0.2967092853196252
0                         0.40642032443999787      0.08763710131677281      -0.20700314277108914
0                         0.37398727044350066      0.15470851053870593      -0.42693045954774733
0                         0.3536603018884171       0.177354255269353        -0.5272372067953394
0                         0.3333333333333334       0.2                      -0.625325707400374
0                         0.3869936352217504       0.17735425526935297      -0.4008340952772548
0                         0.3666666666666668       0.20000000000000004      -0.4846515570469592
0                         0.40000000000000013      0.2                      -0.355981083078774
0                         0.452760022551581        0.04361617938075319      -0.04952376358823232
0                         0.44304667794245733      0.021808089690376602     -0.03784709692643185
0                         0.47638001127579044      0.021808089690376592     -0.009220958449358763
0                         0.46666666666666673      -3.76158192263132E-34    1.498520604037361E-18
0                         0.5                      0                        0
0                         0.4333333333333335       7.26355298920398E-18     -8.48193383175225E-18
0                         0.5099328854059824       0.02213337075995333      0.005839576793502417
0                         0.4863128966817728       0.04394146045032993      -0.010085613222412004
0                         0.4626929079575632       0.06574955014070653      -0.05709264992784122
0                         0.5198657708119646       0.04426674151990666      0.026683201657153884
0                         0.4962457820877552       0.06607483121028326      0.004053780074683809
0                         0.5297986562179469       0.06640011227985998      0.06253087459095441
0                         0.4211983718198213       0.17770211185596765      -0.27140196461613464
0                         0.40819200704157166      0.15505636712532064      -0.3046696322610641
0                         0.4423967436396423       0.15540422371193527      -0.18825360033906274
0                         0.42939037886139264      0.13275847898128826      -0.20993592343044087
0                         0.46359511545946347      0.13310633556790294      -0.10653599024755846
0                         0.39518564226332187      0.1324106223946736       -0.3191806519780054
0                         0.44062506103806875      0.0879849579033875       -0.1281111641496722
0                         0.4179053516506953       0.11019779014903054      -0.21446631166213448
0                         0.45211008824876603      0.11054564673564521      -0.12332035575998479
0                         0.4856629623789579       0.11087092780522197      -0.03211163411856527
0                         0.4741779351682607       0.08831023897296428      -0.050598920584572715
0                         0.5077308092984524       0.08863552004254097      0.024243987494272357
0                         0.4757300769729757       0.15540422371193527      -0.0774044603621491
0                         0.4545317051531547       0.17770211185596768      -0.15507188631051178
0                         0.4333333333333334       0.2                      -0.234170066444442
0                         0.4878650384864878       0.17770211185596765      -0.042562453450877835
0                         0.4666666666666669       0.20000000000000004      -0.11617969525609889
0                         0.5                      0.2                      -0.0020099695137446717
0                         0.5531991041452979       0.04426674151990666      0.07969400219562403
0                         0.5432662187393158       0.022133370759953332     0.03234497706273749
0                         0.576599552072649        0.022133370759953325     0.058850377331972556
0                         0.5666666666666667       -3.76158192263132E-34    2.5400288899896E-18
0                         0.6000000000000001       0                        0
0                         0.5333333333333334       7.371893349079615E-18    4.137182767648899E-18
0                         0.6298449603330236       0.06648138021886683      0.2415838870638932
0                         0.6532299735553492       0.04432092014591122      0.20782262001009913
0                         0.6198966402220158       0.04432092014591122      0.15566001600574525
0                         0.6432816534443413       0.022160460072955617     0.10121335565329113
0                         0.6766149867776746       0.022160460072955607     0.12729465765546805
0                         0.6666666666666667       -3.76158192263132E-34    3.6694598150931346E-18
0                         0.7000000000000001       0                        0
0                         0.609948320111008        0.022160460072955607     0.0751320536511142
0                         0.6333333333333335       7.380915902784537E-18    1.6406110020772303E-17
0                         0.5865478721836569       0.04429383083290894      0.106677473857482
0                         0.5631474242563058       0.06642720159286226      0.10021614159552879
0                         0.5964961922946649       0.06645429090586456      0.15990047908650834
0                         0.5213915496913984       0.1777484440459129       0.07258592307133824
0                         0.5092565881778864       0.15545055590188053      0.03018594836776743
0                         0.542783099382797        0.15549688809182577      0.13629390886149245
0                         0.530648137869285        0.13319899994779338      0.09204644339148402
0                         0.5641746490741957       0.13324533213773865      0.18911398785671796
0                         0.49712162666437437      0.1331526677578482       -0.006503549309941458
0                         0.5860647528271383       0.11099068149811474      0.23155952382629524
0                         0.5527159847887795       0.11096359218511243      0.13677404550267447
0                         0.5746060885417221       0.08870894154548851      0.1608150470781842
0                         0.6079548565800809       0.08873603085849079      0.24904949022868697
0                         0.5412573205033631       0.08868185223248619      0.09457967441408666
0                         0.5191894735838687       0.11091725999516719      0.05307242981015038
0                         0.6414011250970227       0.08871730829002199      0.32692621292566126
0                         0.6195110213440801       0.11097195892964591      0.3250772709583755
0                         0.5976209175911374       0.13322660956926982      0.29827275942390424
0                         0.6529572898610216       0.11095323636117714      0.42037418587845976
0                         0.6310671861080792       0.13320788700080105      0.40921069877909444
0                         0.6645134546250206       0.13318916443233228      0.5219278059222886
0                         0.5761164327161307       0.15549688809182577      0.2481681226113444
0                         0.554724883024732        0.17774844404591295      0.18748534835870267
0                         0.5333333333333332       0.2                      0.11591466731113217
0                         0.5880582163580653       0.17774844404591286      0.3037799543365438
0                         0.5666666666666668       0.20000000000000004      0.23523448482648573
0                         0.6000000000000001       0.2                      0.35594948303231594
0                         0.621504484875007        0.1777297214774441       0.4330547497873445
0                         0.6095627012330722       0.15547816552335697      0.36738490612033803
0                         0.6430089697500138       0.15545944295488817      0.48838085741733545
0                         0.7102590018091606       0.022313449261695085     0.1433194925372719
0                         0.686873988586835        0.0444739093346507       0.2405888498722403
0                         0.6634889753645095       0.06663436940760631      0.29109151190637184
0                         0.7205180036183206       0.04462689852339016      0.2874413642644304
0                         0.6971329903959953       0.06678735859634578      0.35468542127889924
0                         0.730777005427481        0.06694034778508524      0.4323656151814756
0                         0.6866013048925075       0.11110622554991663      0.5309563157168751
0                         0.6750451401285084       0.08887029747876146      0.4069710902661082
0                         0.7086891551599941       0.08902328666750094      0.501102252136604
0                         0.7538513369516542       0.04462689852339016      0.3280944903069407
0                         0.7435923351424938       0.02231344926169509      0.16364605555852704
0                         0.7769256684758271       0.02231344926169508      0.18397261857978212
0                         0.7666666666666666       0                        3.284835508405877E-18
0                         0.8                      0                        0
0                         0.7333333333333335       7.431871538741724E-18    2.7185731326692714E-17
0                         0.7412670791675722       0.0885768996618342       0.5878408783681122
0                         0.7191792289000853       0.11065983854424989      0.6331972893218991
0                         0.6970913786325984       0.13274277742666557      0.6396711269008286
0                         0.7517571529076629       0.11021345153858313      0.7453350962094563
0                         0.7296693026401764       0.13229639042099883      0.7673112811619017
0                         0.7622472266477539       0.13185000341533207      0.904848268705508
0                         0.6763423030833472       0.15545944295488823      0.6173080931471551
0                         0.6548378182083404       0.17772972147744415      0.5623633177045259
0                         0.6333333333333334       0.2                      0.4856393831368587
0                         0.6881711515416735       0.17772972147744412      0.7010687470803175
0                         0.666666666666667        0.20000000000000007      0.6247261447000123
0                         0.7000000000000001       0.20000000000000004      0.7732097677217763
0                         0.7207490755492515       0.1772833344717774       0.8585435208073451
0                         0.7089202270909251       0.1550130559492215       0.7549171404999387
0                         0.7414981510985026       0.1545666689435547       0.9024230211352557
0                         0.8095011843332225       0.022087676013025487     0.2218822757201711
0                         0.7864268528090496       0.044401125274720565     0.38096907791395984
0                         0.7633525212848765       0.06671457453641565      0.5002051332551251
0                         0.8190023686664449       0.044175352026050975     0.4520781876959248
0                         0.7959280371422721       0.06648880128774605      0.58627917350372
0                         0.8285035529996674       0.06626302803907645      0.6905877359272611
0                         0.7843326687650582       0.10998767828991354      0.874848077504087
0                         0.7738425950249676       0.0883511264131646       0.6865171280522523
0                         0.8064181108823627       0.08812535316449498      0.8034278999113378
0                         0.8523357019997784       0.044175352026050975     0.5303117303233951
0                         0.8428345176665559       0.022087676013025494     0.2609990470339063
0                         0.8761678509998893       0.022087676013025487     0.30011581834764145
0                         0.8666666666666667       0                        5.4758771054288895E-18
0                         0.9000000000000002       0                        0
0                         0.8333333333333335       7.356673941036501E-18    4.277282343414206E-17
0                         0.8549375858018659       0.12860337022827087      1.3536256121604031
0                         0.8461262415344664       0.10782325616520608      1.1331425430042663
0                         0.824040799417162        0.12968558129062463      1.1890673458899481
0                         0.8152294551497625       0.10890546722755982      0.9965124010280982
0                         0.8373148972670668       0.08704314210214126      0.9121299175932188
0                         0.7931440130324579       0.1307677923529783       1.0394748980716497
0                         0.774831484431836        0.15456666894355472      1.069821282725509
0                         0.7540824088825849       0.1772833344717774       1.0280371038312834
0                         0.7333333333333334       0.20000000000000007      0.9447986721793995
0                         0.7874157422159179       0.1772833344717774       1.217798331359182
0                         0.7666666666666668       0.2000000000000001       1.1366552211409835
0                         0.8                      0.20000000000000004      1.3487794146065273
0                         0.818312528600622        0.17620112340942365      1.407857796115235
0                         0.8057282708165401       0.15348445788120102      1.2321643297866063
0                         0.8366250572012439       0.15240224681884726      1.40947319529986
0                         0.9212397186819972       0.07291883697778119      1.172563171235099
0                         0.9141598124546648       0.04861255798518746      0.7686504792020299
0                         0.8903276634545538       0.07070023399821294      0.9640670119444644
0                         0.8832477572272217       0.046393955005619214     0.6255622643353683
0                         0.9070799062273325       0.024306278992593727     0.3777960887903302
0                         0.8594156082271106       0.06848163101864468      0.8034085335085184
0                         0.8770382967619099       0.11004185914477432      1.3261258173862853
0                         0.8682269524945103       0.08926174508170955      1.065031953574857
0                         0.8991390077219534       0.09148034806127775      1.2657716704111837
0                         0.9333333333333336       0                        0
0                         0.940413239560666        0.024306278992593727     0.46534898892559406
0                         0.9474931457879981       0.04861255798518745      0.9437562794725576
0                         0.9666666666666668       0                        0
0                         0.9737465728939994       0.02430627899259373      0.5529018890608579
0                         1                        0                        0
0                         0.9345723677192844       0.1350993765582725       1.9596185614413462
0                         0.9301281513735219       0.11437253003144209      1.7394105076478044
0                         0.9080274404134783       0.13293404111493864      1.7427232787113132
0                         0.9035832240677161       0.11220719458810824      1.5253193460321854
0                         0.9256839350277595       0.09364568350461164      1.4770587109123883
0                         0.8814825131076721       0.13076870567160476      1.540725628950999
0                         0.8699583905345774       0.15240224681884726      1.6214310048592722
0                         0.8516458619339554       0.17620112340942368      1.6330604536765936
0                         0.8333333333333333       0.2                      1.5872269201698326
0                         0.8849791952672887       0.17620112340942365      1.8811115647133025
0                         0.8666666666666669       0.20000000000000004      1.8485228792084885
0                         0.9000000000000002       0.2                      2.1326672917224943
0                         0.9230482451461897       0.15673291770551498      2.049733637789977
0                         0.8965033178403836       0.15456758226218117      1.8281335048397658
0                         0.9115241225730949       0.1783664588527575       2.1074165478836933
0                         1.0000000000000002       0.09999999999999999      2.154028426335461
0                         1                        0.06666666666666667      1.854118097363782
0                         0.9737465728939994       0.09097294565926041      1.8502821721973823
0                         0.9737465728939994       0.05763961232592706      1.4106416038658578
0                         0.9999999999999998       0.03333333333333333      1.1361086219186287
0                         0.9474931457879981       0.0819458913185208       1.5231270871639286
0                         0.956381578479523        0.12339958437218167      2.0352146270220146
0                         0.9519373621337608       0.10267273784535125      1.8002427285639087
0                         0.9781907892397615       0.11169979218609083      2.1000179153200524
0                         0.956381578479523        0.15673291770551498      2.320897790309619
0                         0.9781907892397618       0.1450331255194242       2.4073243635052997
0                         0.9781907892397615       0.1783664588527575       2.669201485491314
0                         1                        0.16666666666666663      2.7664585663020054
0                         1                        0.2                      3.0045296469864287