% Model:              Al_zonly.mph
% Version:            COMSOL 5.4.0.225
% Date:               Apr 10 2023, 16:35
% Dimension:          3
% Nodes:              3422
% Expressions:        1
% Description:        Surface
% X                       Y                        Z                        Color
0                         0.06647859897539625      0.13716301239054157      -2.5849078164556527
0                         0.0443190659835975       0.1247753415936944       -2.4430852106751737
0                         0.0443190659835975       0.1581086749270277       -2.7211804724295447
0                         0.02215953299179876      0.14572100413018052      -2.6054995216330483
0                         0.02215953299179875      0.11238767079684718      -2.3015563822424925
0                         -7.52316384526264E-34    0.1333333333333333       -2.4901123481843497
0                         0                        0.09999999999999999      -2.160321331157611
0                         0.02215953299179875      0.17905433746351385      -2.861603843531187
0                         7.380607122730724E-18    0.16666666666666669      -2.7720645477186734
0                         0                        0.2                      -3.0061779297605793
0                         0.027064216510441313     0.09219085205404981      -2.0976782374565435
0                         0                        0.06666666666666667      -1.84335510371282
0                         0.027064216510441316     0.05885751872071647      -1.7091194910234606
0                         0.05412843302088262      0.0843817041080996       -2.0396940032234543
0                         0.054128433020882626     0.051048370774766254     -1.579542737802079
0                         0.08119264953132393      0.07657255616214939      -1.986368628458344
0                         0                        0.03333333333333333      -1.1232479933269495
0                         0.02706421651044132      0.02552418538738314      -0.9174198616492979
0                         0                        0                        0
0                         0.07138328249403883      0.11696619364774416      -2.413309097443242
0                         0.04922374950224008      0.104578522850897        -2.255346778775994
0                         0.07628796601268138      0.09676937490494676      -2.2137960347774728
0                         0.1                      0                        0
0                         0.06666666666666667      0                        0
0                         0.09373088317710798      0.02552418538738313      -0.965628510444228
0                         0.06039754984377466      0.02552418538738313      -0.9415241860467629
0                         0.033333333333333326     0                        0
0                         0.08746176635421594      0.051048370774766254     -1.6277513865970095
0                         0.07765239931693084      0.1581086749270277       -2.744594013667483
0                         0.05549286632513209      0.1790543374635139       -2.874019697713337
0                         0.03333333333333334      0.2                      -3.0075960968869415
0                         0.0888261996584654       0.17905433746351385      -2.901175245266114
0                         0.06666666666666668      0.20000000000000004      -3.0237539573839314
0                         0.1                      0.2                      -3.054651511251548
0                         0.10611444792543323      0.0704246346733597       -1.9164623097491968
0                         0.11238356474832527      0.04490044928597658      -1.5002309617012282
0                         0.1310362463195425       0.06427671318457001      -1.8384621736420375
0                         0.13730536314243452      0.038752527797186895     -1.3646167194074348
0                         0.15595804471365177      0.05812879169578034      -1.7523682201368669
0                         0.11865268157121732      0.01937626389859346      -0.7804939793618126
0                         0.17063869647576785      0.038752527797186895     -1.3804172997547435
0                         0.15198601490455063      0.01937626389859345      -0.7883942695354669
0                         0.18531934823788393      0.019376263898593447     -0.796294559709121
0                         0.16666666666666669      0                        -2.584244812489037E-17
0                         0.2                      0                        0
0                         0.1333333333333334       6.453592293429493E-18    -1.4764521092284683E-16
0                         0.0971584709318778       0.13329544100898047      -2.5653823558793585
0                         0.10833227127341237      0.15424110354546663      -2.737943300202867
0                         0.11950607161494695      0.17518676608195274      -2.9073992789131755
0                         0.12783834288835932      0.12942786962741937      -2.563410420971705
0                         0.13901214322989391      0.15037353216390556      -2.7488461124068904
0                         0.15851821484484085      0.12556029824585824      -2.578992011732691
0                         0.10696783796916293      0.09290180352338567      -2.184991819978767
0                         0.10206315445052037      0.11309862226618309      -2.3891442597557426
0                         0.1327430264070019       0.10923105088462194      -2.3825329477368826
0                         0.1568114347573815       0.08060596054580631      -2.073144342560302
0                         0.13188963636327225      0.086753882034596        -2.1331149899685404
0                         0.15766482480111113      0.10308312939583227      -2.3486856064255766
0                         0.17234547656322724      0.1503735321639055       -2.8002644650299193
0                         0.1528394049482803       0.17518676608195277      -2.9557929004391506
0                         0.13333333333333333      0.2                      -3.1000204016804678
0                         0.1861727382816136       0.17518676608195272      -3.018992379281623
0                         0.16666666666666674      0.20000000000000004      -3.160195149425885
0                         0.2                      0.2                      -3.2351757544877997
0                         0.17960610245556735      0.06135682078573435      -1.809253077849926
0                         0.19428675421768346      0.04198055688714091      -1.4548589414803859
0                         0.20325416019748285      0.06458484987568835      -1.878639817836193
0                         0.21793481195959896      0.0452085859770949       -1.5418024654792366
0                         0.2269022179393984       0.06781287896564235      -1.960528440095669
0                         0.20896740597979954      0.02260429298854746      -0.8882929854473469
0                         0.18045949249929705      0.08383398963576033      -2.131187178635341
0                         0.1813128825430267       0.10631115848578628      -2.4078864208625954
0                         0.20410755024121258      0.08706201872571434      -2.2017318969835884
0                         0.21938496411681804      0.17815403024964496      -3.098905490317331
0                         0.2055577023984317       0.15334079633159775      -2.864797265805696
0                         0.23876992823363613      0.1563080604992899       -2.9502986218939578
0                         0.2249426665152498       0.13149482658124267      -2.6982655480768654
0                         0.2581548923504542       0.1344620907489349       -2.7893551492176822
0                         0.19173044068004536      0.12852756241355048      -2.628144502248535
0                         0.237319776076417        0.09002928289340655      -2.26714572371191
0                         0.21452510837823116      0.10927842265347851      -2.465169579484679
0                         0.24773733421343555      0.11224568682117071      -2.5434212934192484
0                         0.28171917798667256      0.11139500216161739      -2.5705796151758538
0                         0.27130161984965395      0.08917859823385325      -2.283113271282961
0                         0.30528346362289094      0.08832791357429991      -2.2925514122726183
0                         0.2948659054858723       0.06611150964653574      -1.9635525802852658
0                         0.3288477492591093       0.06526082498698242      -1.955270540507975
0                         0.26088406171263545      0.06696219430608907      -1.965305213481164
0                         0.25126814529293234      0.0452085859770949       -1.5419872895460176
0                         0.24230073931313287      0.02260429298854746      -0.8883853974807377
0                         0.27563407264646617      0.022604292988547447     -0.8884778095141281
0                         0.2666666666666668       -3.76158192263132E-34    -2.933987071545854E-17
0                         0.3000000000000001       0                        0
0                         0.23333333333333345      7.528741959377509E-18    -1.6749554246716638E-16
0                         0.30961591641970315      0.02175360832899414      -0.9201960035914412
0                         0.28524998906616933      0.0443579013175416       -1.5602347732774218
0                         0.3192318328394062       0.043507216657988276     -1.571952850427433
0                         0.27210326156696946      0.1563080604992899       -2.9996370816020503
0                         0.25271829745015145      0.17815403024964502      -3.1569103180625744
0                         0.2333333333333334       0.2                      -3.3018469502701935
0                         0.2860516307834847       0.17815403024964493      -3.212515163663202
0                         0.2666666666666668       0.20000000000000004      -3.3661181639079727
0                         0.3000000000000001       0.2                      -3.4279893954011373
0                         0.32032696855508375      0.17735425526935297      -3.2569577792430104
0                         0.3063785993385684       0.15550828551899792      -3.0360674457304855
0                         0.3406539371101673       0.1547085105387059       -3.075320964895967
0                         0.326705567893652        0.13286254078835086      -2.8490145296088505
0                         0.36098090566525093      0.13206276580805887      -2.8830789523600084
0                         0.29243023012205316      0.13366231576864293      -2.817773261894742
0                         0.33955880139448985      0.08752813859400792      -2.3170103080779914
0                         0.31599451575827153      0.1105952271813254       -2.597018119417071
0                         0.35026985352987033      0.10979545220103339      -2.626279778695335
0                         0.35256516617273964      0.043507216657988276     -1.620683115020416
0                         0.34294924975303653      0.02175360832899415      -0.9445611358879329
0                         0.37628258308636986      0.021753608328994138     -0.9689262681844242
0                         0.36666666666666675      -7.52316384526264E-34    -3.7585684541887356E-17
0                         0.40000000000000013      0                        0
0                         0.3333333333333335       7.24540705065806E-18     -1.7965307812489573E-16
0                         0.4097133446091239       0.0218080896903766       -0.9168717629985015
0                         0.3859959276954937       0.04356169801937075      -1.5984804821938194
0                         0.3622785107818634       0.06531530634836488      -1.9629197800407052
0                         0.4194266892182476       0.04361617938075319      -1.5920435519597924
0                         0.3957092723046175       0.06536978770974734      -1.9863347221660044
0                         0.42914003382737137      0.06542426907112979      -2.0255153668838726
0                         0.3837006150526244       0.10984993356241586      -2.6610319220102143
0                         0.3729895629172439       0.08758261995539038      -2.3382109995017957
0                         0.40642032443999787      0.08763710131677281      -2.375177393518169
0                         0.37398727044350066      0.15470851053870593      -3.1093024845911694
0                         0.3536603018884171       0.177354255269353        -3.2989999654181785
0                         0.3333333333333334       0.2                      -3.4780922480562704
0                         0.3869936352217504       0.17735425526935297      -3.33448957128983
0                         0.3666666666666668       0.20000000000000004      -3.5216425204078874
0                         0.40000000000000013      0.2                      -3.5586402124559897
0                         0.452760022551581        0.04361617938075319      -1.5722577150617398
0                         0.44304667794245733      0.021808089690376602     -0.9069788445494754
0                         0.47638001127579044      0.021808089690376592     -0.8970859261004491
0                         0.46666666666666673      -3.76158192263132E-34    -2.854084669915686E-17
0                         0.5                      0                        0
0                         0.4333333333333335       7.26355298920398E-18     -1.7116788512706823E-16
0                         0.5099328854059824       0.02213337075995333      -0.9612266201443644
0                         0.4863128966817728       0.04394146045032993      -1.610728130394931
0                         0.4626929079575632       0.06574955014070653      -2.0383155035063396
0                         0.5198657708119646       0.04426674151990666      -1.6345220223784955
0                         0.4962457820877552       0.06607483121028326      -2.0364391167791798
0                         0.5297986562179469       0.06640011227985998      -2.019886206702393
0                         0.4211983718198213       0.17770211185596765      -3.363215696203529
0                         0.40819200704157166      0.15505636712532064      -3.134604088751531
0                         0.4423967436396423       0.15540422371193527      -3.1604272000825686
0                         0.42939037886139264      0.13275847898128826      -2.92735462634473
0                         0.46359511545946347      0.13310633556790294      -2.9502747240931058
0                         0.39518564226332187      0.1324106223946736       -2.9049560357670305
0                         0.44062506103806875      0.0879849579033875       -2.371284020740687
0                         0.4179053516506953       0.11019779014903054      -2.6700237773249844
0                         0.45211008824876603      0.11054564673564521      -2.6795371398104315
0                         0.4856629623789579       0.11087092780522197      -2.691227303420418
0                         0.4741779351682607       0.08831023897296428      -2.383529170856914
0                         0.5077308092984524       0.08863552004254097      -2.3810977976235135
0                         0.4757300769729757       0.15540422371193527      -3.1717350857980975
0                         0.4545317051531547       0.17770211185596768      -3.3800287558196107
0                         0.4333333333333334       0.2                      -3.580958445972622
0                         0.4878650384864878       0.17770211185596765      -3.3887473455053825
0                         0.4666666666666669       0.20000000000000004      -3.595182209558946
0                         0.5                      0.2                      -3.6013115032149607
0                         0.5531991041452979       0.04426674151990666      -1.644545209399436
0                         0.5432662187393158       0.022133370759953332     -0.9662382136548351
0                         0.576599552072649        0.022133370759953325     -0.9712498071653053
0                         0.5666666666666667       -3.76158192263132E-34    -3.6797233084442184E-17
0                         0.6000000000000001       0                        0
0                         0.5333333333333334       7.371893349079615E-18    -1.8488607688326467E-16
0                         0.6298449603330236       0.06648138021886683      -2.0308389526510786
0                         0.6532299735553492       0.04432092014591122      -1.5823090810436804
0                         0.6198966402220158       0.04432092014591122      -1.568264323942311
0                         0.6432816534443413       0.022160460072955617     -0.8983403849426363
0                         0.6766149867776746       0.022160460072955607     -0.9053627634933208
0                         0.6666666666666667       -3.76158192263132E-34    -2.7944504240908524E-17
0                         0.7000000000000001       0                        0
0                         0.609948320111008        0.022160460072955607     -0.8913180063919515
0                         0.6333333333333335       7.380915902784537E-18    -1.6745375575556975E-16
0                         0.5865478721836569       0.04429383083290894      -1.61262646940225
0                         0.5631474242563058       0.06642720159286226      -2.0359805274813745
0                         0.5964961922946649       0.06645429090586456      -2.039631442797603
0                         0.5213915496913984       0.1777484440459129       -3.386564203336165
0                         0.5092565881778864       0.15545055590188053      -3.1659966667309405
0                         0.542783099382797        0.15549688809182577      -3.1660529753076645
0                         0.530648137869285        0.13319899994779338      -2.9374820598067917
0                         0.5641746490741957       0.13324533213773865      -2.9397778191294575
0                         0.49712162666437437      0.1331526677578482       -2.9409810281280078
0                         0.5860647528271383       0.11099068149811474      -2.659868343664696
0                         0.5527159847887795       0.11096359218511243      -2.686275425896068
0                         0.5746060885417221       0.08870894154548851      -2.374488507694185
0                         0.6079548565800809       0.08873603085849079      -2.3568887215052365
0                         0.5412573205033631       0.08868185223248619      -2.37964488842038
0                         0.5191894735838687       0.11091725999516719      -2.685854000836302
0                         0.6414011250970227       0.08871730829002199      -2.3490779913260313
0                         0.6195110213440801       0.11097195892964591      -2.6430380344823408
0                         0.5976209175911374       0.13322660956926982      -2.9139279309439523
0                         0.6529572898610216       0.11095323636117714      -2.626337059414396
0                         0.6310671861080792       0.13320788700080105      -2.888207376872857
0                         0.6645134546250206       0.13318916443233228      -2.862616156916172
0                         0.5761164327161307       0.15549688809182577      -3.1507014614474484
0                         0.554724883024732        0.17774844404591295      -3.3752230522184727
0                         0.5333333333333332       0.2                      -3.59398071483979
0                         0.5880582163580653       0.17774844404591286      -3.3572899859447203
0                         0.5666666666666668       0.20000000000000004      -3.5800580113085614
0                         0.6000000000000001       0.2                      -3.5595433926212734
0                         0.621504484875007        0.1777297214774441       -3.3273997136405917
0                         0.6095627012330722       0.15547816552335697      -3.122831381202632
0                         0.6430089697500138       0.15545944295488817      -3.095090635072225
0                         0.7102590018091606       0.022313449261695085     -0.8988587253369827
0                         0.686873988586835        0.0444739093346507       -1.5549468114623761
0                         0.6634889753645095       0.06663436940760631      -1.9826184516448087
0                         0.7205180036183206       0.04462689852339016      -1.5492076398893837
0                         0.6971329903959953       0.06678735859634578      -1.95602104864685
0                         0.730777005427481        0.06694034778508524      -1.951046743657202
0                         0.6866013048925075       0.11110622554991663      -2.598361652224926
0                         0.6750451401285084       0.08887029747876146      -2.310980037228162
0                         0.7086891551599941       0.08902328666750094      -2.2945051811386032
0                         0.7538513369516542       0.04462689852339016      -1.523594487304127
0                         0.7435923351424938       0.02231344926169509      -0.8860521490443547
0                         0.7769256684758271       0.02231344926169508      -0.8732455727517263
0                         0.7666666666666666       0                        -2.8906174420052755E-17
0                         0.8                      0                        0
0                         0.7333333333333335       7.431871538741724E-18    -1.6824992306651776E-16
0                         0.7412670791675722       0.0885768996618342       -2.2555621114094833
0                         0.7191792289000853       0.11065983854424989      -2.5544011598754506
0                         0.6970913786325984       0.13274277742666557      -2.8136382419463395
0                         0.7517571529076629       0.11021345153858313      -2.513700835838077
0                         0.7296693026401764       0.13229639042099883      -2.7679204952886094
0                         0.7622472266477539       0.13185000341533207      -2.7254629169429836
0                         0.6763423030833472       0.15545944295488823      -3.057434331781286
0                         0.6548378182083404       0.17772972147744415      -3.2902194155723077
0                         0.6333333333333334       0.2                      -3.522839099775642
0                         0.6881711515416735       0.17772972147744412      -3.2470068005659316
0                         0.666666666666667        0.20000000000000007      -3.48010248999192
0                         0.7000000000000001       0.20000000000000004      -3.431333563270107
0                         0.7207490755492515       0.1772833344717774       -3.1906466704987926
0                         0.7089202270909251       0.1550130559492215       -3.004765309262801
0                         0.7414981510985026       0.1545666689435547       -2.955356455056418
0                         0.8095011843332225       0.022087676013025487     -0.8579796032894431
0                         0.7864268528090496       0.044401125274720565     -1.5051031776854062
0                         0.7633525212848765       0.06671457453641565      -1.929330093882044
0                         0.8190023686664449       0.044175352026050975     -1.489601455906601
0                         0.7959280371422721       0.06648880128774605      -1.910603031946801
0                         0.8285035529996674       0.06626302803907645      -1.894865557851474
0                         0.7843326687650582       0.10998767828991354      -2.476080186855458
0                         0.7738425950249676       0.0883511264131646       -2.225893462030595
0                         0.8064181108823627       0.08812535316449498      -2.199214400491621
0                         0.8523357019997784       0.044175352026050975     -1.475674114929169
0                         0.8428345176665559       0.022087676013025494     -0.8510159328007271
0                         0.8761678509998893       0.022087676013025487     -0.8440522623120106
0                         0.8666666666666667       0                        -2.7112419395485957E-17
0                         0.9000000000000002       0                        0
0                         0.8333333333333335       7.356673941036501E-18    -1.6057069143263812E-16
0                         0.8549375858018659       0.12860337022827087      -2.5800985796122284
0                         0.8461262415344664       0.10782325616520608      -2.3846133900937962
0                         0.824040799417162        0.12968558129062463      -2.619784835612493
0                         0.8152294551497625       0.10890546722755982      -2.4259625269196334
0                         0.8373148972670668       0.08704314210214126      -2.156202382840211
0                         0.7931440130324579       0.1307677923529783       -2.668239614722745
0                         0.774831484431836        0.15456666894355472      -2.903743875729945
0                         0.7540824088825849       0.1772833344717774       -3.1290131449165863
0                         0.7333333333333334       0.20000000000000007      -3.359679091432167
0                         0.7874157422159179       0.1772833344717774       -3.0683457951106607
0                         0.7666666666666668       0.2000000000000001       -3.288990795370509
0                         0.8                      0.20000000000000004      -3.219268675085132
0                         0.818312528600622        0.17620112340942365      -3.002268006074816
0                         0.8057282708165401       0.15348445788120102      -2.842093330101904
0                         0.8366250572012439       0.15240224681884726      -2.789211307583849
0                         0.9212397186819972       0.07291883697778119      -1.9454717019992078
0                         0.9141598124546648       0.04861255798518746      -1.546723104204251
0                         0.8903276634545538       0.07070023399821294      -1.9201162262150642
0                         0.8832477572272217       0.046393955005619214     -1.5069552290325938
0                         0.9070799062273325       0.024306278992593727     -0.8982325368711819
0                         0.8594156082271106       0.06848163101864468      -1.9032475114991527
0                         0.8770382967619099       0.11004185914477432      -2.3822446716853003
0                         0.8682269524945103       0.08926174508170955      -2.159209000459803
0                         0.8991390077219534       0.09148034806127775      -2.1707023791476265
0                         0.9333333333333336       0                        0
0                         0.940413239560666        0.024306278992593727     -0.8918571590152305
0                         0.9474931457879981       0.04861255798518745      -1.5339723484923489
0                         0.9666666666666668       0                        0
0                         0.9737465728939994       0.02430627899259373      -0.8854817811592797
0                         1                        0                        0
0                         0.9345723677192844       0.1350993765582725       -2.5518724671338946
0                         0.9301281513735219       0.11437253003144209      -2.3793209276000074
0                         0.9080274404134783       0.13293404111493864      -2.547004742081734
0                         0.9035832240677161       0.11220719458810824      -2.3736445850368515
0                         0.9256839350277595       0.09364568350461164      -2.177187339221778
0                         0.8814825131076721       0.13076870567160476      -2.5564134462411783
0                         0.8699583905345774       0.15240224681884726      -2.745902046340413
0                         0.8516458619339554       0.17620112340942368      -2.945491453062223
0                         0.8333333333333333       0.2                      -3.149024830303379
0                         0.8849791952672887       0.17620112340942365      -2.899408668291918
0                         0.8666666666666669       0.20000000000000004      -3.0894747537639162
0                         0.9000000000000002       0.2                      -3.040618445466743
0                         0.9230482451461897       0.15673291770551498      -2.722793678878809
0                         0.8965033178403836       0.15456758226218117      -2.727209648003809
0                         0.9115241225730949       0.1783664588527575       -2.885709004989758
0                         1.0000000000000002       0.09999999999999999      -2.150754110004994
0                         1                        0.06666666666666667      -1.852386464628397
0                         0.9737465728939994       0.09097294565926041      -2.0792593934176846
0                         0.9737465728939994       0.05763961232592706      -1.6916457829343494
0                         0.9999999999999998       0.03333333333333333      -1.1354684279600653
0                         0.9474931457879981       0.0819458913185208       -2.0108319240824226
0                         0.956381578479523        0.12339958437218167      -2.420507117743957
0                         0.9519373621337608       0.10267273784535125      -2.2304605453353608
0                         0.9781907892397615       0.11169979218609083      -2.2868009987009903
0                         0.956381578479523        0.15673291770551498      -2.701008426585779
0                         0.9781907892397618       0.1450331255194242       -2.592600328203348
0                         0.9781907892397615       0.1783664588527575       -2.850554518189258
0                         1                        0.16666666666666663      -2.7651036708143333
0                         1                        0.2                      -3.0005107419443324